   TITLE = "Archivo convertido de GMV a Tecplot GMV2TECPLOT 1.0"
    VARIABLES ="x","y","z"
ZONE T= "PASO      0"   N=31104,   E=28080,   F=FEBLOCK,  ET=BRICK
  +1.7096E-01  +1.7031E-01  +0.0000E+00  +0.0000E+00  +1.7096E-01  +1.7031E-01  +0.0000E+00  +0.0000E+00  +3.4192E-01  +3.4062E-01
  +3.4192E-01  +3.4062E-01  +5.1289E-01  +5.1093E-01  +5.1289E-01  +5.1093E-01  +6.8385E-01  +6.8124E-01  +6.8385E-01  +6.8124E-01
  +8.5481E-01  +8.5155E-01  +8.5481E-01  +8.5155E-01  +1.0258E+00  +1.0219E+00  +1.0258E+00  +1.0219E+00  +1.1967E+00  +1.1922E+00
  +1.1967E+00  +1.1922E+00  +1.3677E+00  +1.3625E+00  +1.3677E+00  +1.3625E+00  +1.5387E+00  +1.5328E+00  +1.5387E+00  +1.5328E+00
  +1.7096E+00  +1.7031E+00  +1.7096E+00  +1.7031E+00  +1.8806E+00  +1.8734E+00  +1.8806E+00  +1.8734E+00  +2.0515E+00  +2.0437E+00
  +2.0515E+00  +2.0437E+00  +2.2225E+00  +2.2140E+00  +2.2225E+00  +2.2140E+00  +2.3935E+00  +2.3843E+00  +2.3935E+00  +2.3843E+00
  +2.5644E+00  +2.5547E+00  +2.5644E+00  +2.5547E+00  +2.7354E+00  +2.7250E+00  +2.7354E+00  +2.7250E+00  +2.9064E+00  +2.8953E+00
  +2.9064E+00  +2.8953E+00  +3.0773E+00  +3.0656E+00  +3.0773E+00  +3.0656E+00  +3.2483E+00  +3.2359E+00  +3.2483E+00  +3.2359E+00
  +3.4192E+00  +3.4062E+00  +3.4192E+00  +3.4062E+00  +3.5902E+00  +3.5765E+00  +3.5902E+00  +3.5765E+00  +3.7612E+00  +3.7468E+00
  +3.7612E+00  +3.7468E+00  +3.9321E+00  +3.9171E+00  +3.9321E+00  +3.9171E+00  +4.1031E+00  +4.0875E+00  +4.1031E+00  +4.0875E+00
  +4.2740E+00  +4.2578E+00  +4.2740E+00  +4.2578E+00  +4.4450E+00  +4.4281E+00  +4.4450E+00  +4.4281E+00  +1.6836E-01  +0.0000E+00
  +1.6836E-01  +0.0000E+00  +3.3673E-01  +3.3673E-01  +5.0509E-01  +5.0509E-01  +6.7346E-01  +6.7346E-01  +8.4182E-01  +8.4182E-01
  +1.0102E+00  +1.0102E+00  +1.1785E+00  +1.1785E+00  +1.3469E+00  +1.3469E+00  +1.5153E+00  +1.5153E+00  +1.6836E+00  +1.6836E+00
  +1.8520E+00  +1.8520E+00  +2.0204E+00  +2.0204E+00  +2.1887E+00  +2.1887E+00  +2.3571E+00  +2.3571E+00  +2.5255E+00  +2.5255E+00
  +2.6938E+00  +2.6938E+00  +2.8622E+00  +2.8622E+00  +3.0306E+00  +3.0306E+00  +3.1989E+00  +3.1989E+00  +3.3673E+00  +3.3673E+00
  +3.5356E+00  +3.5356E+00  +3.7040E+00  +3.7040E+00  +3.8724E+00  +3.8724E+00  +4.0407E+00  +4.0407E+00  +4.2091E+00  +4.2091E+00
  +4.3775E+00  +4.3775E+00  +1.6514E-01  +0.0000E+00  +1.6514E-01  +0.0000E+00  +3.3027E-01  +3.3027E-01  +4.9541E-01  +4.9541E-01
  +6.6055E-01  +6.6055E-01  +8.2568E-01  +8.2568E-01  +9.9082E-01  +9.9082E-01  +1.1560E+00  +1.1560E+00  +1.3211E+00  +1.3211E+00
  +1.4862E+00  +1.4862E+00  +1.6514E+00  +1.6514E+00  +1.8165E+00  +1.8165E+00  +1.9816E+00  +1.9816E+00  +2.1468E+00  +2.1468E+00
  +2.3119E+00  +2.3119E+00  +2.4770E+00  +2.4770E+00  +2.6422E+00  +2.6422E+00  +2.8073E+00  +2.8073E+00  +2.9724E+00  +2.9724E+00
  +3.1376E+00  +3.1376E+00  +3.3027E+00  +3.3027E+00  +3.4679E+00  +3.4679E+00  +3.6330E+00  +3.6330E+00  +3.7981E+00  +3.7981E+00
  +3.9633E+00  +3.9633E+00  +4.1284E+00  +4.1284E+00  +4.2935E+00  +4.2935E+00  +1.6065E-01  +0.0000E+00  +1.6065E-01  +0.0000E+00
  +3.2130E-01  +3.2130E-01  +4.8195E-01  +4.8195E-01  +6.4260E-01  +6.4260E-01  +8.0326E-01  +8.0326E-01  +9.6391E-01  +9.6391E-01
  +1.1246E+00  +1.1246E+00  +1.2852E+00  +1.2852E+00  +1.4459E+00  +1.4459E+00  +1.6065E+00  +1.6065E+00  +1.7672E+00  +1.7672E+00
  +1.9278E+00  +1.9278E+00  +2.0885E+00  +2.0885E+00  +2.2491E+00  +2.2491E+00  +2.4098E+00  +2.4098E+00  +2.5704E+00  +2.5704E+00
  +2.7311E+00  +2.7311E+00  +2.8917E+00  +2.8917E+00  +3.0524E+00  +3.0524E+00  +3.2130E+00  +3.2130E+00  +3.3737E+00  +3.3737E+00
  +3.5343E+00  +3.5343E+00  +3.6950E+00  +3.6950E+00  +3.8556E+00  +3.8556E+00  +4.0163E+00  +4.0163E+00  +4.1769E+00  +4.1769E+00
  +1.5494E-01  +0.0000E+00  +1.5494E-01  +0.0000E+00  +3.0989E-01  +3.0989E-01  +4.6483E-01  +4.6483E-01  +6.1977E-01  +6.1977E-01
  +7.7472E-01  +7.7472E-01  +9.2966E-01  +9.2966E-01  +1.0846E+00  +1.0846E+00  +1.2395E+00  +1.2395E+00  +1.3945E+00  +1.3945E+00
  +1.5494E+00  +1.5494E+00  +1.7044E+00  +1.7044E+00  +1.8593E+00  +1.8593E+00  +2.0143E+00  +2.0143E+00  +2.1692E+00  +2.1692E+00
  +2.3242E+00  +2.3242E+00  +2.4791E+00  +2.4791E+00  +2.6340E+00  +2.6340E+00  +2.7890E+00  +2.7890E+00  +2.9439E+00  +2.9439E+00
  +3.0989E+00  +3.0989E+00  +3.2538E+00  +3.2538E+00  +3.4088E+00  +3.4088E+00  +3.5637E+00  +3.5637E+00  +3.7186E+00  +3.7186E+00
  +3.8736E+00  +3.8736E+00  +4.0285E+00  +4.0285E+00  +1.4806E-01  +0.0000E+00  +1.4806E-01  +0.0000E+00  +2.9611E-01  +2.9611E-01
  +4.4417E-01  +4.4417E-01  +5.9223E-01  +5.9223E-01  +7.4028E-01  +7.4028E-01  +8.8834E-01  +8.8834E-01  +1.0364E+00  +1.0364E+00
  +1.1845E+00  +1.1845E+00  +1.3325E+00  +1.3325E+00  +1.4806E+00  +1.4806E+00  +1.6286E+00  +1.6286E+00  +1.7767E+00  +1.7767E+00
  +1.9247E+00  +1.9247E+00  +2.0728E+00  +2.0728E+00  +2.2208E+00  +2.2209E+00  +2.3689E+00  +2.3689E+00  +2.5170E+00  +2.5170E+00
  +2.6650E+00  +2.6650E+00  +2.8131E+00  +2.8131E+00  +2.9611E+00  +2.9611E+00  +3.1092E+00  +3.1092E+00  +3.2572E+00  +3.2572E+00
  +3.4053E+00  +3.4053E+00  +3.5534E+00  +3.5534E+00  +3.7014E+00  +3.7014E+00  +3.8495E+00  +3.8495E+00  +1.4004E-01  +0.0000E+00
  +1.4004E-01  +0.0000E+00  +2.8009E-01  +2.8009E-01  +4.2013E-01  +4.2013E-01  +5.6017E-01  +5.6017E-01  +7.0022E-01  +7.0022E-01
  +8.4026E-01  +8.4026E-01  +9.8030E-01  +9.8030E-01  +1.1203E+00  +1.1203E+00  +1.2604E+00  +1.2604E+00  +1.4004E+00  +1.4004E+00
  +1.5405E+00  +1.5405E+00  +1.6805E+00  +1.6805E+00  +1.8206E+00  +1.8206E+00  +1.9606E+00  +1.9606E+00  +2.1006E+00  +2.1006E+00
  +2.2407E+00  +2.2407E+00  +2.3807E+00  +2.3807E+00  +2.5208E+00  +2.5208E+00  +2.6608E+00  +2.6608E+00  +2.8009E+00  +2.8009E+00
  +2.9409E+00  +2.9409E+00  +3.0810E+00  +3.0810E+00  +3.2210E+00  +3.2210E+00  +3.3610E+00  +3.3610E+00  +3.5011E+00  +3.5011E+00
  +3.6411E+00  +3.6411E+00  +1.3096E-01  +0.0000E+00  +1.3096E-01  +0.0000E+00  +2.6193E-01  +2.6193E-01  +3.9289E-01  +3.9289E-01
  +5.2386E-01  +5.2386E-01  +6.5482E-01  +6.5482E-01  +7.8578E-01  +7.8578E-01  +9.1675E-01  +9.1675E-01  +1.0477E+00  +1.0477E+00
  +1.1787E+00  +1.1787E+00  +1.3096E+00  +1.3096E+00  +1.4406E+00  +1.4406E+00  +1.5716E+00  +1.5716E+00  +1.7025E+00  +1.7025E+00
  +1.8335E+00  +1.8335E+00  +1.9645E+00  +1.9645E+00  +2.0954E+00  +2.0954E+00  +2.2264E+00  +2.2264E+00  +2.3574E+00  +2.3574E+00
  +2.4883E+00  +2.4883E+00  +2.6193E+00  +2.6193E+00  +2.7502E+00  +2.7502E+00  +2.8812E+00  +2.8812E+00  +3.0122E+00  +3.0122E+00
  +3.1431E+00  +3.1431E+00  +3.2741E+00  +3.2741E+00  +3.4051E+00  +3.4051E+00  +1.2089E-01  +0.0000E+00  +1.2089E-01  +0.0000E+00
  +2.4178E-01  +2.4178E-01  +3.6266E-01  +3.6266E-01  +4.8355E-01  +4.8355E-01  +6.0444E-01  +6.0444E-01  +7.2533E-01  +7.2533E-01
  +8.4622E-01  +8.4622E-01  +9.6710E-01  +9.6710E-01  +1.0880E+00  +1.0880E+00  +1.2089E+00  +1.2089E+00  +1.3298E+00  +1.3298E+00
  +1.4507E+00  +1.4507E+00  +1.5715E+00  +1.5715E+00  +1.6924E+00  +1.6924E+00  +1.8133E+00  +1.8133E+00  +1.9342E+00  +1.9342E+00
  +2.0551E+00  +2.0551E+00  +2.1760E+00  +2.1760E+00  +2.2969E+00  +2.2969E+00  +2.4178E+00  +2.4178E+00  +2.5387E+00  +2.5387E+00
  +2.6595E+00  +2.6595E+00  +2.7804E+00  +2.7804E+00  +2.9013E+00  +2.9013E+00  +3.0222E+00  +3.0222E+00  +3.1431E+00  +3.1431E+00
  +1.0989E-01  +0.0000E+00  +1.0989E-01  +0.0000E+00  +2.1978E-01  +2.1978E-01  +3.2968E-01  +3.2968E-01  +4.3957E-01  +4.3957E-01
  +5.4946E-01  +5.4946E-01  +6.5935E-01  +6.5935E-01  +7.6924E-01  +7.6924E-01  +8.7914E-01  +8.7914E-01  +9.8903E-01  +9.8903E-01
  +1.0989E+00  +1.0989E+00  +1.2088E+00  +1.2088E+00  +1.3187E+00  +1.3187E+00  +1.4286E+00  +1.4286E+00  +1.5385E+00  +1.5385E+00
  +1.6484E+00  +1.6484E+00  +1.7583E+00  +1.7583E+00  +1.8682E+00  +1.8682E+00  +1.9781E+00  +1.9781E+00  +2.0880E+00  +2.0880E+00
  +2.1978E+00  +2.1978E+00  +2.3077E+00  +2.3077E+00  +2.4176E+00  +2.4176E+00  +2.5275E+00  +2.5275E+00  +2.6374E+00  +2.6374E+00
  +2.7473E+00  +2.7473E+00  +2.8572E+00  +2.8572E+00  +9.8059E-02  +0.0000E+00  +9.8059E-02  +0.0000E+00  +1.9612E-01  +1.9612E-01
  +2.9418E-01  +2.9418E-01  +3.9224E-01  +3.9224E-01  +4.9030E-01  +4.9030E-01  +5.8836E-01  +5.8836E-01  +6.8642E-01  +6.8642E-01
  +7.8448E-01  +7.8448E-01  +8.8254E-01  +8.8254E-01  +9.8059E-01  +9.8059E-01  +1.0787E+00  +1.0787E+00  +1.1767E+00  +1.1767E+00
  +1.2748E+00  +1.2748E+00  +1.3728E+00  +1.3728E+00  +1.4709E+00  +1.4709E+00  +1.5690E+00  +1.5690E+00  +1.6670E+00  +1.6670E+00
  +1.7651E+00  +1.7651E+00  +1.8631E+00  +1.8631E+00  +1.9612E+00  +1.9612E+00  +2.0593E+00  +2.0593E+00  +2.1573E+00  +2.1573E+00
  +2.2554E+00  +2.2554E+00  +2.3534E+00  +2.3534E+00  +2.4515E+00  +2.4515E+00  +2.5495E+00  +2.5495E+00  +8.5481E-02  +0.0000E+00
  +8.5481E-02  +0.0000E+00  +1.7096E-01  +1.7096E-01  +2.5644E-01  +2.5644E-01  +3.4192E-01  +3.4192E-01  +4.2740E-01  +4.2740E-01
  +5.1289E-01  +5.1289E-01  +5.9837E-01  +5.9837E-01  +6.8385E-01  +6.8385E-01  +7.6933E-01  +7.6933E-01  +8.5481E-01  +8.5481E-01
  +9.4029E-01  +9.4029E-01  +1.0258E+00  +1.0258E+00  +1.1113E+00  +1.1113E+00  +1.1967E+00  +1.1967E+00  +1.2822E+00  +1.2822E+00
  +1.3677E+00  +1.3677E+00  +1.4532E+00  +1.4532E+00  +1.5387E+00  +1.5387E+00  +1.6241E+00  +1.6241E+00  +1.7096E+00  +1.7096E+00
  +1.7951E+00  +1.7951E+00  +1.8806E+00  +1.8806E+00  +1.9661E+00  +1.9661E+00  +2.0515E+00  +2.0515E+00  +2.1370E+00  +2.1370E+00
  +2.2225E+00  +2.2225E+00  +7.2251E-02  +0.0000E+00  +7.2251E-02  +0.0000E+00  +1.4450E-01  +1.4450E-01  +2.1675E-01  +2.1675E-01
  +2.8901E-01  +2.8901E-01  +3.6126E-01  +3.6126E-01  +4.3351E-01  +4.3351E-01  +5.0576E-01  +5.0576E-01  +5.7801E-01  +5.7801E-01
  +6.5026E-01  +6.5026E-01  +7.2252E-01  +7.2252E-01  +7.9477E-01  +7.9477E-01  +8.6702E-01  +8.6702E-01  +9.3927E-01  +9.3927E-01
  +1.0115E+00  +1.0115E+00  +1.0838E+00  +1.0838E+00  +1.1560E+00  +1.1560E+00  +1.2283E+00  +1.2283E+00  +1.3005E+00  +1.3005E+00
  +1.3728E+00  +1.3728E+00  +1.4450E+00  +1.4450E+00  +1.5173E+00  +1.5173E+00  +1.5895E+00  +1.5895E+00  +1.6618E+00  +1.6618E+00
  +1.7340E+00  +1.7340E+00  +1.8063E+00  +1.8063E+00  +1.8785E+00  +1.8785E+00  +5.8472E-02  +0.0000E+00  +5.8472E-02  +0.0000E+00
  +1.1694E-01  +1.1694E-01  +1.7542E-01  +1.7542E-01  +2.3389E-01  +2.3389E-01  +2.9236E-01  +2.9236E-01  +3.5083E-01  +3.5083E-01
  +4.0931E-01  +4.0931E-01  +4.6778E-01  +4.6778E-01  +5.2625E-01  +5.2625E-01  +5.8472E-01  +5.8472E-01  +6.4319E-01  +6.4319E-01
  +7.0167E-01  +7.0167E-01  +7.6014E-01  +7.6014E-01  +8.1861E-01  +8.1861E-01  +8.7708E-01  +8.7708E-01  +9.3556E-01  +9.3556E-01
  +9.9403E-01  +9.9403E-01  +1.0525E+00  +1.0525E+00  +1.1110E+00  +1.1110E+00  +1.1695E+00  +1.1695E+00  +1.2279E+00  +1.2279E+00
  +1.2864E+00  +1.2864E+00  +1.3449E+00  +1.3449E+00  +1.4033E+00  +1.4033E+00  +1.4618E+00  +1.4618E+00  +1.5203E+00  +1.5203E+00
  +4.4248E-02  +0.0000E+00  +4.4248E-02  +0.0000E+00  +8.8496E-02  +8.8496E-02  +1.3274E-01  +1.3274E-01  +1.7699E-01  +1.7699E-01
  +2.2124E-01  +2.2124E-01  +2.6549E-01  +2.6549E-01  +3.0974E-01  +3.0974E-01  +3.5398E-01  +3.5398E-01  +3.9823E-01  +3.9823E-01
  +4.4248E-01  +4.4248E-01  +4.8673E-01  +4.8673E-01  +5.3098E-01  +5.3098E-01  +5.7522E-01  +5.7522E-01  +6.1947E-01  +6.1947E-01
  +6.6372E-01  +6.6372E-01  +7.0797E-01  +7.0797E-01  +7.5222E-01  +7.5222E-01  +7.9647E-01  +7.9647E-01  +8.4071E-01  +8.4071E-01
  +8.8496E-01  +8.8496E-01  +9.2921E-01  +9.2921E-01  +9.7346E-01  +9.7346E-01  +1.0177E+00  +1.0177E+00  +1.0619E+00  +1.0619E+00
  +1.1062E+00  +1.1062E+00  +1.1504E+00  +1.1504E+00  +2.9687E-02  +0.0000E+00  +2.9687E-02  +0.0000E+00  +5.9374E-02  +5.9374E-02
  +8.9062E-02  +8.9062E-02  +1.1875E-01  +1.1875E-01  +1.4844E-01  +1.4844E-01  +1.7812E-01  +1.7812E-01  +2.0781E-01  +2.0781E-01
  +2.3750E-01  +2.3750E-01  +2.6718E-01  +2.6718E-01  +2.9687E-01  +2.9687E-01  +3.2656E-01  +3.2656E-01  +3.5625E-01  +3.5625E-01
  +3.8593E-01  +3.8593E-01  +4.1562E-01  +4.1562E-01  +4.4531E-01  +4.4531E-01  +4.7499E-01  +4.7499E-01  +5.0468E-01  +5.0468E-01
  +5.3437E-01  +5.3437E-01  +5.6406E-01  +5.6406E-01  +5.9374E-01  +5.9374E-01  +6.2343E-01  +6.2343E-01  +6.5312E-01  +6.5312E-01
  +6.8280E-01  +6.8280E-01  +7.1249E-01  +7.1249E-01  +7.4218E-01  +7.4218E-01  +7.7187E-01  +7.7187E-01  +1.4900E-02  +0.0000E+00
  +1.4900E-02  +0.0000E+00  +2.9801E-02  +2.9801E-02  +4.4701E-02  +4.4701E-02  +5.9601E-02  +5.9601E-02  +7.4501E-02  +7.4501E-02
  +8.9402E-02  +8.9402E-02  +1.0430E-01  +1.0430E-01  +1.1920E-01  +1.1920E-01  +1.3410E-01  +1.3410E-01  +1.4900E-01  +1.4900E-01
  +1.6390E-01  +1.6390E-01  +1.7880E-01  +1.7880E-01  +1.9370E-01  +1.9370E-01  +2.0860E-01  +2.0860E-01  +2.2350E-01  +2.2350E-01
  +2.3840E-01  +2.3840E-01  +2.5331E-01  +2.5331E-01  +2.6821E-01  +2.6821E-01  +2.8310E-01  +2.8310E-01  +2.9801E-01  +2.9801E-01
  +3.1291E-01  +3.1291E-01  +3.2781E-01  +3.2781E-01  +3.4271E-01  +3.4271E-01  +3.5761E-01  +3.5761E-01  +3.7251E-01  +3.7251E-01
  +3.8741E-01  +3.8741E-01  -7.4730E-09  +0.0000E+00  -7.4730E-09  +0.0000E+00  -1.4946E-08  -1.4946E-08  -2.2419E-08  -2.2419E-08
  -2.9892E-08  -2.9892E-08  -3.7365E-08  -3.7365E-08  -4.4838E-08  -4.4838E-08  -5.2311E-08  -5.2311E-08  -5.9784E-08  -5.9784E-08
  -6.7257E-08  -6.7257E-08  -7.4730E-08  -7.4730E-08  -8.2203E-08  -8.2203E-08  -8.9676E-08  -8.9676E-08  -9.7149E-08  -9.7149E-08
  -1.0462E-07  -1.0462E-07  -1.1209E-07  -1.1209E-07  -1.1957E-07  -1.1957E-07  -1.2704E-07  -1.2704E-07  -1.3451E-07  -1.3451E-07
  -1.4199E-07  -1.4199E-07  -1.4946E-07  -1.4946E-07  -1.5693E-07  -1.5693E-07  -1.6440E-07  -1.6440E-07  -1.7188E-07  -1.7188E-07
  -1.7935E-07  -1.7935E-07  -1.8682E-07  -1.8682E-07  -1.9430E-07  -1.9430E-07  -1.4900E-02  +0.0000E+00  -1.4900E-02  +0.0000E+00
  -2.9801E-02  -2.9801E-02  -4.4701E-02  -4.4701E-02  -5.9601E-02  -5.9601E-02  -7.4501E-02  -7.4501E-02  -8.9402E-02  -8.9402E-02
  -1.0430E-01  -1.0430E-01  -1.1920E-01  -1.1920E-01  -1.3410E-01  -1.3410E-01  -1.4900E-01  -1.4900E-01  -1.6390E-01  -1.6390E-01
  -1.7880E-01  -1.7880E-01  -1.9370E-01  -1.9370E-01  -2.0860E-01  -2.0860E-01  -2.2351E-01  -2.2351E-01  -2.3841E-01  -2.3841E-01
  -2.5331E-01  -2.5331E-01  -2.6821E-01  -2.6821E-01  -2.8311E-01  -2.8311E-01  -2.9801E-01  -2.9801E-01  -3.1291E-01  -3.1291E-01
  -3.2781E-01  -3.2781E-01  -3.4271E-01  -3.4271E-01  -3.5761E-01  -3.5761E-01  -3.7251E-01  -3.7251E-01  -3.8741E-01  -3.8741E-01
  -2.9687E-02  +0.0000E+00  -2.9687E-02  +0.0000E+00  -5.9374E-02  -5.9374E-02  -8.9062E-02  -8.9062E-02  -1.1875E-01  -1.1875E-01
  -1.4844E-01  -1.4844E-01  -1.7812E-01  -1.7812E-01  -2.0781E-01  -2.0781E-01  -2.3750E-01  -2.3750E-01  -2.6719E-01  -2.6719E-01
  -2.9687E-01  -2.9687E-01  -3.2656E-01  -3.2656E-01  -3.5625E-01  -3.5625E-01  -3.8593E-01  -3.8593E-01  -4.1562E-01  -4.1562E-01
  -4.4531E-01  -4.4531E-01  -4.7500E-01  -4.7500E-01  -5.0468E-01  -5.0468E-01  -5.3437E-01  -5.3437E-01  -5.6406E-01  -5.6406E-01
  -5.9374E-01  -5.9374E-01  -6.2343E-01  -6.2343E-01  -6.5312E-01  -6.5312E-01  -6.8280E-01  -6.8280E-01  -7.1249E-01  -7.1249E-01
  -7.4218E-01  -7.4218E-01  -7.7187E-01  -7.7187E-01  -4.4248E-02  +0.0000E+00  -4.4248E-02  +0.0000E+00  -8.8496E-02  -8.8496E-02
  -1.3274E-01  -1.3274E-01  -1.7699E-01  -1.7699E-01  -2.2124E-01  -2.2124E-01  -2.6549E-01  -2.6549E-01  -3.0974E-01  -3.0974E-01
  -3.5398E-01  -3.5398E-01  -3.9823E-01  -3.9823E-01  -4.4248E-01  -4.4248E-01  -4.8673E-01  -4.8673E-01  -5.3098E-01  -5.3098E-01
  -5.7523E-01  -5.7523E-01  -6.1947E-01  -6.1947E-01  -6.6372E-01  -6.6372E-01  -7.0797E-01  -7.0797E-01  -7.5222E-01  -7.5222E-01
  -7.9647E-01  -7.9647E-01  -8.4071E-01  -8.4071E-01  -8.8496E-01  -8.8496E-01  -9.2921E-01  -9.2921E-01  -9.7346E-01  -9.7346E-01
  -1.0177E+00  -1.0177E+00  -1.0619E+00  -1.0619E+00  -1.1062E+00  -1.1062E+00  -1.1504E+00  -1.1504E+00  -5.8472E-02  +0.0000E+00
  -5.8472E-02  +0.0000E+00  -1.1694E-01  -1.1694E-01  -1.7542E-01  -1.7542E-01  -2.3389E-01  -2.3389E-01  -2.9236E-01  -2.9236E-01
  -3.5083E-01  -3.5083E-01  -4.0931E-01  -4.0931E-01  -4.6778E-01  -4.6778E-01  -5.2625E-01  -5.2625E-01  -5.8472E-01  -5.8472E-01
  -6.4319E-01  -6.4320E-01  -7.0167E-01  -7.0167E-01  -7.6014E-01  -7.6014E-01  -8.1861E-01  -8.1861E-01  -8.7709E-01  -8.7709E-01
  -9.3556E-01  -9.3556E-01  -9.9403E-01  -9.9403E-01  -1.0525E+00  -1.0525E+00  -1.1110E+00  -1.1110E+00  -1.1695E+00  -1.1695E+00
  -1.2279E+00  -1.2279E+00  -1.2864E+00  -1.2864E+00  -1.3449E+00  -1.3449E+00  -1.4033E+00  -1.4033E+00  -1.4618E+00  -1.4618E+00
  -1.5203E+00  -1.5203E+00  -7.2251E-02  +0.0000E+00  -7.2251E-02  +0.0000E+00  -1.4450E-01  -1.4450E-01  -2.1675E-01  -2.1675E-01
  -2.8901E-01  -2.8901E-01  -3.6126E-01  -3.6126E-01  -4.3351E-01  -4.3351E-01  -5.0576E-01  -5.0576E-01  -5.7801E-01  -5.7801E-01
  -6.5026E-01  -6.5026E-01  -7.2252E-01  -7.2252E-01  -7.9477E-01  -7.9477E-01  -8.6702E-01  -8.6702E-01  -9.3927E-01  -9.3927E-01
  -1.0115E+00  -1.0115E+00  -1.0838E+00  -1.0838E+00  -1.1560E+00  -1.1560E+00  -1.2283E+00  -1.2283E+00  -1.3005E+00  -1.3005E+00
  -1.3728E+00  -1.3728E+00  -1.4450E+00  -1.4450E+00  -1.5173E+00  -1.5173E+00  -1.5895E+00  -1.5895E+00  -1.6618E+00  -1.6618E+00
  -1.7340E+00  -1.7340E+00  -1.8063E+00  -1.8063E+00  -1.8785E+00  -1.8785E+00  -8.5481E-02  +0.0000E+00  -8.5481E-02  +0.0000E+00
  -1.7096E-01  -1.7096E-01  -2.5644E-01  -2.5644E-01  -3.4192E-01  -3.4192E-01  -4.2740E-01  -4.2740E-01  -5.1289E-01  -5.1289E-01
  -5.9837E-01  -5.9837E-01  -6.8385E-01  -6.8385E-01  -7.6933E-01  -7.6933E-01  -8.5481E-01  -8.5481E-01  -9.4029E-01  -9.4029E-01
  -1.0258E+00  -1.0258E+00  -1.1113E+00  -1.1113E+00  -1.1967E+00  -1.1967E+00  -1.2822E+00  -1.2822E+00  -1.3677E+00  -1.3677E+00
  -1.4532E+00  -1.4532E+00  -1.5387E+00  -1.5387E+00  -1.6241E+00  -1.6241E+00  -1.7096E+00  -1.7096E+00  -1.7951E+00  -1.7951E+00
  -1.8806E+00  -1.8806E+00  -1.9661E+00  -1.9661E+00  -2.0515E+00  -2.0515E+00  -2.1370E+00  -2.1370E+00  -2.2225E+00  -2.2225E+00
  -9.8059E-02  +0.0000E+00  -9.8059E-02  +0.0000E+00  -1.9612E-01  -1.9612E-01  -2.9418E-01  -2.9418E-01  -3.9224E-01  -3.9224E-01
  -4.9030E-01  -4.9030E-01  -5.8836E-01  -5.8836E-01  -6.8642E-01  -6.8642E-01  -7.8448E-01  -7.8448E-01  -8.8254E-01  -8.8254E-01
  -9.8059E-01  -9.8059E-01  -1.0787E+00  -1.0787E+00  -1.1767E+00  -1.1767E+00  -1.2748E+00  -1.2748E+00  -1.3728E+00  -1.3728E+00
  -1.4709E+00  -1.4709E+00  -1.5690E+00  -1.5690E+00  -1.6670E+00  -1.6670E+00  -1.7651E+00  -1.7651E+00  -1.8631E+00  -1.8631E+00
  -1.9612E+00  -1.9612E+00  -2.0593E+00  -2.0593E+00  -2.1573E+00  -2.1573E+00  -2.2554E+00  -2.2554E+00  -2.3534E+00  -2.3534E+00
  -2.4515E+00  -2.4515E+00  -2.5495E+00  -2.5495E+00  -1.0989E-01  +0.0000E+00  -1.0989E-01  +0.0000E+00  -2.1978E-01  -2.1978E-01
  -3.2968E-01  -3.2968E-01  -4.3957E-01  -4.3957E-01  -5.4946E-01  -5.4946E-01  -6.5935E-01  -6.5935E-01  -7.6924E-01  -7.6924E-01
  -8.7914E-01  -8.7914E-01  -9.8903E-01  -9.8903E-01  -1.0989E+00  -1.0989E+00  -1.2088E+00  -1.2088E+00  -1.3187E+00  -1.3187E+00
  -1.4286E+00  -1.4286E+00  -1.5385E+00  -1.5385E+00  -1.6484E+00  -1.6484E+00  -1.7583E+00  -1.7583E+00  -1.8682E+00  -1.8682E+00
  -1.9781E+00  -1.9781E+00  -2.0880E+00  -2.0880E+00  -2.1978E+00  -2.1978E+00  -2.3077E+00  -2.3077E+00  -2.4176E+00  -2.4176E+00
  -2.5275E+00  -2.5275E+00  -2.6374E+00  -2.6374E+00  -2.7473E+00  -2.7473E+00  -2.8572E+00  -2.8572E+00  -1.2089E-01  +0.0000E+00
  -1.2089E-01  +0.0000E+00  -2.4178E-01  -2.4178E-01  -3.6266E-01  -3.6266E-01  -4.8355E-01  -4.8355E-01  -6.0444E-01  -6.0444E-01
  -7.2533E-01  -7.2533E-01  -8.4622E-01  -8.4622E-01  -9.6710E-01  -9.6710E-01  -1.0880E+00  -1.0880E+00  -1.2089E+00  -1.2089E+00
  -1.3298E+00  -1.3298E+00  -1.4507E+00  -1.4507E+00  -1.5715E+00  -1.5715E+00  -1.6924E+00  -1.6924E+00  -1.8133E+00  -1.8133E+00
  -1.9342E+00  -1.9342E+00  -2.0551E+00  -2.0551E+00  -2.1760E+00  -2.1760E+00  -2.2969E+00  -2.2969E+00  -2.4178E+00  -2.4178E+00
  -2.5387E+00  -2.5387E+00  -2.6595E+00  -2.6595E+00  -2.7804E+00  -2.7804E+00  -2.9013E+00  -2.9013E+00  -3.0222E+00  -3.0222E+00
  -3.1431E+00  -3.1431E+00  -1.3096E-01  +0.0000E+00  -1.3096E-01  +0.0000E+00  -2.6193E-01  -2.6193E-01  -3.9289E-01  -3.9289E-01
  -5.2386E-01  -5.2386E-01  -6.5482E-01  -6.5482E-01  -7.8578E-01  -7.8578E-01  -9.1675E-01  -9.1675E-01  -1.0477E+00  -1.0477E+00
  -1.1787E+00  -1.1787E+00  -1.3096E+00  -1.3096E+00  -1.4406E+00  -1.4406E+00  -1.5716E+00  -1.5716E+00  -1.7025E+00  -1.7025E+00
  -1.8335E+00  -1.8335E+00  -1.9645E+00  -1.9645E+00  -2.0954E+00  -2.0954E+00  -2.2264E+00  -2.2264E+00  -2.3574E+00  -2.3574E+00
  -2.4883E+00  -2.4883E+00  -2.6193E+00  -2.6193E+00  -2.7502E+00  -2.7502E+00  -2.8812E+00  -2.8812E+00  -3.0122E+00  -3.0122E+00
  -3.1431E+00  -3.1431E+00  -3.2741E+00  -3.2741E+00  -3.4051E+00  -3.4051E+00  -1.4004E-01  +0.0000E+00  -1.4004E-01  +0.0000E+00
  -2.8009E-01  -2.8009E-01  -4.2013E-01  -4.2013E-01  -5.6017E-01  -5.6017E-01  -7.0022E-01  -7.0022E-01  -8.4026E-01  -8.4026E-01
  -9.8030E-01  -9.8030E-01  -1.1203E+00  -1.1203E+00  -1.2604E+00  -1.2604E+00  -1.4004E+00  -1.4004E+00  -1.5405E+00  -1.5405E+00
  -1.6805E+00  -1.6805E+00  -1.8206E+00  -1.8206E+00  -1.9606E+00  -1.9606E+00  -2.1006E+00  -2.1006E+00  -2.2407E+00  -2.2407E+00
  -2.3807E+00  -2.3807E+00  -2.5208E+00  -2.5208E+00  -2.6608E+00  -2.6608E+00  -2.8009E+00  -2.8009E+00  -2.9409E+00  -2.9409E+00
  -3.0810E+00  -3.0810E+00  -3.2210E+00  -3.2210E+00  -3.3610E+00  -3.3610E+00  -3.5011E+00  -3.5011E+00  -3.6411E+00  -3.6411E+00
  -1.4806E-01  +0.0000E+00  -1.4806E-01  +0.0000E+00  -2.9611E-01  -2.9611E-01  -4.4417E-01  -4.4417E-01  -5.9223E-01  -5.9223E-01
  -7.4028E-01  -7.4028E-01  -8.8834E-01  -8.8834E-01  -1.0364E+00  -1.0364E+00  -1.1845E+00  -1.1845E+00  -1.3325E+00  -1.3325E+00
  -1.4806E+00  -1.4806E+00  -1.6286E+00  -1.6286E+00  -1.7767E+00  -1.7767E+00  -1.9247E+00  -1.9247E+00  -2.0728E+00  -2.0728E+00
  -2.2209E+00  -2.2209E+00  -2.3689E+00  -2.3689E+00  -2.5170E+00  -2.5170E+00  -2.6650E+00  -2.6650E+00  -2.8131E+00  -2.8131E+00
  -2.9611E+00  -2.9611E+00  -3.1092E+00  -3.1092E+00  -3.2572E+00  -3.2573E+00  -3.4053E+00  -3.4053E+00  -3.5534E+00  -3.5534E+00
  -3.7014E+00  -3.7014E+00  -3.8495E+00  -3.8495E+00  -1.5494E-01  +0.0000E+00  -1.5494E-01  +0.0000E+00  -3.0989E-01  -3.0989E-01
  -4.6483E-01  -4.6483E-01  -6.1977E-01  -6.1977E-01  -7.7472E-01  -7.7472E-01  -9.2966E-01  -9.2966E-01  -1.0846E+00  -1.0846E+00
  -1.2395E+00  -1.2395E+00  -1.3945E+00  -1.3945E+00  -1.5494E+00  -1.5494E+00  -1.7044E+00  -1.7044E+00  -1.8593E+00  -1.8593E+00
  -2.0143E+00  -2.0143E+00  -2.1692E+00  -2.1692E+00  -2.3242E+00  -2.3242E+00  -2.4791E+00  -2.4791E+00  -2.6340E+00  -2.6340E+00
  -2.7890E+00  -2.7890E+00  -2.9439E+00  -2.9439E+00  -3.0989E+00  -3.0989E+00  -3.2538E+00  -3.2538E+00  -3.4088E+00  -3.4088E+00
  -3.5637E+00  -3.5637E+00  -3.7186E+00  -3.7186E+00  -3.8736E+00  -3.8736E+00  -4.0285E+00  -4.0285E+00  -1.6065E-01  +0.0000E+00
  -1.6065E-01  +0.0000E+00  -3.2130E-01  -3.2130E-01  -4.8195E-01  -4.8195E-01  -6.4260E-01  -6.4260E-01  -8.0326E-01  -8.0326E-01
  -9.6391E-01  -9.6391E-01  -1.1246E+00  -1.1246E+00  -1.2852E+00  -1.2852E+00  -1.4459E+00  -1.4459E+00  -1.6065E+00  -1.6065E+00
  -1.7672E+00  -1.7672E+00  -1.9278E+00  -1.9278E+00  -2.0885E+00  -2.0885E+00  -2.2491E+00  -2.2491E+00  -2.4098E+00  -2.4098E+00
  -2.5704E+00  -2.5704E+00  -2.7311E+00  -2.7311E+00  -2.8917E+00  -2.8917E+00  -3.0524E+00  -3.0524E+00  -3.2130E+00  -3.2130E+00
  -3.3737E+00  -3.3737E+00  -3.5343E+00  -3.5343E+00  -3.6950E+00  -3.6950E+00  -3.8556E+00  -3.8556E+00  -4.0163E+00  -4.0163E+00
  -4.1769E+00  -4.1769E+00  -1.6514E-01  +0.0000E+00  -1.6514E-01  +0.0000E+00  -3.3027E-01  -3.3027E-01  -4.9541E-01  -4.9541E-01
  -6.6055E-01  -6.6055E-01  -8.2568E-01  -8.2568E-01  -9.9082E-01  -9.9082E-01  -1.1560E+00  -1.1560E+00  -1.3211E+00  -1.3211E+00
  -1.4862E+00  -1.4862E+00  -1.6514E+00  -1.6514E+00  -1.8165E+00  -1.8165E+00  -1.9816E+00  -1.9816E+00  -2.1468E+00  -2.1468E+00
  -2.3119E+00  -2.3119E+00  -2.4770E+00  -2.4770E+00  -2.6422E+00  -2.6422E+00  -2.8073E+00  -2.8073E+00  -2.9724E+00  -2.9724E+00
  -3.1376E+00  -3.1376E+00  -3.3027E+00  -3.3027E+00  -3.4679E+00  -3.4679E+00  -3.6330E+00  -3.6330E+00  -3.7981E+00  -3.7981E+00
  -3.9633E+00  -3.9633E+00  -4.1284E+00  -4.1284E+00  -4.2935E+00  -4.2935E+00  -1.6836E-01  +0.0000E+00  -1.6836E-01  +0.0000E+00
  -3.3673E-01  -3.3673E-01  -5.0509E-01  -5.0509E-01  -6.7346E-01  -6.7346E-01  -8.4182E-01  -8.4182E-01  -1.0102E+00  -1.0102E+00
  -1.1785E+00  -1.1785E+00  -1.3469E+00  -1.3469E+00  -1.5153E+00  -1.5153E+00  -1.6836E+00  -1.6836E+00  -1.8520E+00  -1.8520E+00
  -2.0204E+00  -2.0204E+00  -2.1887E+00  -2.1887E+00  -2.3571E+00  -2.3571E+00  -2.5255E+00  -2.5255E+00  -2.6938E+00  -2.6938E+00
  -2.8622E+00  -2.8622E+00  -3.0306E+00  -3.0306E+00  -3.1989E+00  -3.1989E+00  -3.3673E+00  -3.3673E+00  -3.5356E+00  -3.5356E+00
  -3.7040E+00  -3.7040E+00  -3.8724E+00  -3.8724E+00  -4.0407E+00  -4.0407E+00  -4.2091E+00  -4.2091E+00  -4.3775E+00  -4.3775E+00
  -1.7031E-01  +0.0000E+00  -1.7031E-01  +0.0000E+00  -3.4062E-01  -3.4062E-01  -5.1093E-01  -5.1093E-01  -6.8124E-01  -6.8124E-01
  -8.5155E-01  -8.5155E-01  -1.0219E+00  -1.0219E+00  -1.1922E+00  -1.1922E+00  -1.3625E+00  -1.3625E+00  -1.5328E+00  -1.5328E+00
  -1.7031E+00  -1.7031E+00  -1.8734E+00  -1.8734E+00  -2.0437E+00  -2.0437E+00  -2.2140E+00  -2.2140E+00  -2.3843E+00  -2.3843E+00
  -2.5547E+00  -2.5547E+00  -2.7250E+00  -2.7250E+00  -2.8953E+00  -2.8953E+00  -3.0656E+00  -3.0656E+00  -3.2359E+00  -3.2359E+00
  -3.4062E+00  -3.4062E+00  -3.5765E+00  -3.5765E+00  -3.7468E+00  -3.7468E+00  -3.9171E+00  -3.9171E+00  -4.0875E+00  -4.0875E+00
  -4.2578E+00  -4.2578E+00  -4.4281E+00  -4.4281E+00  -1.7096E-01  +0.0000E+00  -1.7096E-01  +0.0000E+00  -3.4192E-01  -3.4192E-01
  -5.1289E-01  -5.1289E-01  -6.8385E-01  -6.8385E-01  -8.5481E-01  -8.5481E-01  -1.0258E+00  -1.0258E+00  -1.1967E+00  -1.1967E+00
  -1.3677E+00  -1.3677E+00  -1.5387E+00  -1.5387E+00  -1.7096E+00  -1.7096E+00  -1.8806E+00  -1.8806E+00  -2.0515E+00  -2.0515E+00
  -2.2225E+00  -2.2225E+00  -2.3935E+00  -2.3935E+00  -2.5644E+00  -2.5644E+00  -2.7354E+00  -2.7354E+00  -2.9064E+00  -2.9064E+00
  -3.0773E+00  -3.0773E+00  -3.2483E+00  -3.2483E+00  -3.4192E+00  -3.4192E+00  -3.5902E+00  -3.5902E+00  -3.7612E+00  -3.7612E+00
  -3.9321E+00  -3.9321E+00  -4.1031E+00  -4.1031E+00  -4.2740E+00  -4.2740E+00  -4.4450E+00  -4.4450E+00  -1.7031E-01  +0.0000E+00
  -1.7031E-01  +0.0000E+00  -3.4062E-01  -3.4062E-01  -5.1093E-01  -5.1093E-01  -6.8124E-01  -6.8124E-01  -8.5155E-01  -8.5155E-01
  -1.0219E+00  -1.0219E+00  -1.1922E+00  -1.1922E+00  -1.3625E+00  -1.3625E+00  -1.5328E+00  -1.5328E+00  -1.7031E+00  -1.7031E+00
  -1.8734E+00  -1.8734E+00  -2.0437E+00  -2.0437E+00  -2.2140E+00  -2.2140E+00  -2.3843E+00  -2.3843E+00  -2.5547E+00  -2.5547E+00
  -2.7250E+00  -2.7250E+00  -2.8953E+00  -2.8953E+00  -3.0656E+00  -3.0656E+00  -3.2359E+00  -3.2359E+00  -3.4062E+00  -3.4062E+00
  -3.5765E+00  -3.5765E+00  -3.7468E+00  -3.7468E+00  -3.9171E+00  -3.9171E+00  -4.0875E+00  -4.0875E+00  -4.2578E+00  -4.2578E+00
  -4.4281E+00  -4.4281E+00  -1.6836E-01  +0.0000E+00  -1.6836E-01  +0.0000E+00  -3.3673E-01  -3.3673E-01  -5.0509E-01  -5.0509E-01
  -6.7346E-01  -6.7346E-01  -8.4182E-01  -8.4182E-01  -1.0102E+00  -1.0102E+00  -1.1785E+00  -1.1785E+00  -1.3469E+00  -1.3469E+00
  -1.5153E+00  -1.5153E+00  -1.6836E+00  -1.6836E+00  -1.8520E+00  -1.8520E+00  -2.0204E+00  -2.0204E+00  -2.1887E+00  -2.1887E+00
  -2.3571E+00  -2.3571E+00  -2.5255E+00  -2.5255E+00  -2.6938E+00  -2.6938E+00  -2.8622E+00  -2.8622E+00  -3.0306E+00  -3.0306E+00
  -3.1989E+00  -3.1989E+00  -3.3673E+00  -3.3673E+00  -3.5356E+00  -3.5356E+00  -3.7040E+00  -3.7040E+00  -3.8724E+00  -3.8724E+00
  -4.0407E+00  -4.0407E+00  -4.2091E+00  -4.2091E+00  -4.3775E+00  -4.3775E+00  -1.6514E-01  +0.0000E+00  -1.6514E-01  +0.0000E+00
  -3.3027E-01  -3.3027E-01  -4.9541E-01  -4.9541E-01  -6.6055E-01  -6.6055E-01  -8.2568E-01  -8.2568E-01  -9.9082E-01  -9.9082E-01
  -1.1560E+00  -1.1560E+00  -1.3211E+00  -1.3211E+00  -1.4862E+00  -1.4862E+00  -1.6514E+00  -1.6514E+00  -1.8165E+00  -1.8165E+00
  -1.9816E+00  -1.9816E+00  -2.1468E+00  -2.1468E+00  -2.3119E+00  -2.3119E+00  -2.4770E+00  -2.4770E+00  -2.6422E+00  -2.6422E+00
  -2.8073E+00  -2.8073E+00  -2.9724E+00  -2.9724E+00  -3.1376E+00  -3.1376E+00  -3.3027E+00  -3.3027E+00  -3.4679E+00  -3.4679E+00
  -3.6330E+00  -3.6330E+00  -3.7981E+00  -3.7981E+00  -3.9633E+00  -3.9633E+00  -4.1284E+00  -4.1284E+00  -4.2935E+00  -4.2935E+00
  -1.6065E-01  +0.0000E+00  -1.6065E-01  +0.0000E+00  -3.2130E-01  -3.2130E-01  -4.8195E-01  -4.8195E-01  -6.4260E-01  -6.4260E-01
  -8.0326E-01  -8.0326E-01  -9.6391E-01  -9.6391E-01  -1.1246E+00  -1.1246E+00  -1.2852E+00  -1.2852E+00  -1.4459E+00  -1.4459E+00
  -1.6065E+00  -1.6065E+00  -1.7672E+00  -1.7672E+00  -1.9278E+00  -1.9278E+00  -2.0885E+00  -2.0885E+00  -2.2491E+00  -2.2491E+00
  -2.4098E+00  -2.4098E+00  -2.5704E+00  -2.5704E+00  -2.7311E+00  -2.7311E+00  -2.8917E+00  -2.8917E+00  -3.0524E+00  -3.0524E+00
  -3.2130E+00  -3.2130E+00  -3.3737E+00  -3.3737E+00  -3.5343E+00  -3.5343E+00  -3.6950E+00  -3.6950E+00  -3.8556E+00  -3.8556E+00
  -4.0163E+00  -4.0163E+00  -4.1769E+00  -4.1769E+00  -1.5494E-01  +0.0000E+00  -1.5494E-01  +0.0000E+00  -3.0989E-01  -3.0989E-01
  -4.6483E-01  -4.6483E-01  -6.1977E-01  -6.1977E-01  -7.7472E-01  -7.7472E-01  -9.2966E-01  -9.2966E-01  -1.0846E+00  -1.0846E+00
  -1.2395E+00  -1.2395E+00  -1.3945E+00  -1.3945E+00  -1.5494E+00  -1.5494E+00  -1.7044E+00  -1.7044E+00  -1.8593E+00  -1.8593E+00
  -2.0143E+00  -2.0143E+00  -2.1692E+00  -2.1692E+00  -2.3242E+00  -2.3242E+00  -2.4791E+00  -2.4791E+00  -2.6340E+00  -2.6340E+00
  -2.7890E+00  -2.7890E+00  -2.9439E+00  -2.9439E+00  -3.0989E+00  -3.0989E+00  -3.2538E+00  -3.2538E+00  -3.4088E+00  -3.4088E+00
  -3.5637E+00  -3.5637E+00  -3.7186E+00  -3.7186E+00  -3.8736E+00  -3.8736E+00  -4.0285E+00  -4.0285E+00  -1.4806E-01  +0.0000E+00